% Model:              ML端口边界_高斯光极限精度比较1.32.mph
% Version:            COMSOL 6.2.0.415
% Date:               Aug 6 2024, 09:23
% Dimension:          1
% Nodes:              1521
% Expressions:        1
% Description:        线结果图
% x 坐标 (m);real(ewfd.Ez)
-1.8899999999999999E-7;2.325874129889748E-6
-1.8875131578947367E-7;2.933530606990401E-6
-1.8850263157894735E-7;3.4422095872753945E-6
-1.8825394736842104E-7;3.851911070744728E-6
-1.8800526315789472E-7;4.162635057398404E-6
-1.877565789473684E-7;4.345925772763584E-6
-1.875078947368421E-7;4.4025325106036E-6
-1.8725921052631577E-7;4.332455270918452E-6
-1.8701052631578945E-7;4.135694053708141E-6
-1.8676184210526314E-7;3.8122929959671837E-6
-1.8651315789473682E-7;3.3913056552370815E-6
-1.862644736842105E-7;2.872732031517834E-6
-1.860157894736842E-7;2.256572124809441E-6
-1.8576710526315787E-7;1.5713351781014093E-6
-1.8551842105263156E-7;8.613279245988543E-7
-1.8526973684210524E-7;1.26550364301776E-7
-1.8502105263157892E-7;-6.329975027898257E-7
-1.847723684210526E-7;-1.3731487342167244E-6
-1.845236842105263E-7;-2.0542180247538465E-6
-1.8427499999999997E-7;-2.6762053744011913E-6
-1.8402631578947366E-7;-3.2391107831587593E-6
-1.8377763157894734E-7;-3.7029218513199907E-6
-1.8352894736842103E-7;-4.05034343701619E-6
-1.832802631578947E-7;-4.281375540247356E-6
-1.830315789473684E-7;-4.396018161013489E-6
-1.8278289473684208E-7;-4.376328841315013E-6
-1.8253421052631579E-7;-4.235101760304869E-6
-1.8228552631578947E-7;-3.972336917983056E-6
-1.8203684210526315E-7;-3.588034314349576E-6
-1.8178815789473684E-7;-3.094310278153625E-6
-1.8153947368421052E-7;-2.528252977707082E-6
-1.812907894736842E-7;-1.889862413009946E-6
-1.810421052631579E-7;-1.179138584062218E-6
-1.8079342105263157E-7;-4.327640776668044E-7
-1.8054473684210526E-7;3.045318181350916E-7
-1.8029605263157894E-7;1.03274910334347E-6
-1.8004736842105262E-7;1.7518877779583307E-6
-1.797986842105263E-7;2.417171389848182E-6
-1.7955E-7;2.996245456764125E-6
-1.7930131578947367E-7;3.4891099787061593E-6
-1.7905263157894736E-7;3.895764955674285E-6
-1.7880394736842104E-7;4.183378155097468E-6
-1.7855526315789472E-7;4.3463769202962275E-6
-1.783065789473684E-7;4.384761251270563E-6
-1.780578947368421E-7;4.298531148020475E-6
-1.7780921052631578E-7;4.081419841407989E-6
-1.7756052631578946E-7;3.7570135260099238E-6
-1.7731184210526317E-7;3.3253122018262784E-6
-1.7706315789473685E-7;2.7863158688570536E-6
-1.7681447368421054E-7;2.1630101761713496E-6
-1.7656578947368422E-7;1.4974819555301437E-6
-1.763171052631579E-7;7.897312069334357E-7
-1.760684210526316E-7;3.9757930381225795E-8
-1.7581973684210527E-7;-7.105910676192221E-7
-1.7557105263157895E-7;-1.4195894792958637E-6
-1.7532236842105264E-7;-2.087237304648699E-6
-1.7507368421052632E-7;-2.7135345436777276E-6
-1.74825E-7;-3.256529233843835E-6
-1.745763157894737E-7;-3.6934469859780407E-6
-1.7432763157894737E-7;-4.024287800080346E-6
-1.7407894736842106E-7;-4.249051676150749E-6
-1.7383026315789474E-7;-4.344375517678843E-6
-1.7358157894736842E-7;-4.316459940606541E-6
-1.733328947368421E-7;-4.1653049449338436E-6
-1.730842105263158E-7;-3.890910530660751E-6
-1.7283552631578947E-7;-3.4987890436063376E-6
-1.7258684210526316E-7;-3.0211576089819445E-6
-1.7233815789473684E-7;-2.4580162267875727E-6
-1.7208947368421053E-7;-1.8093648970232214E-6
-1.718407894736842E-7;-1.1069389676165626E-6
-1.715921052631579E-7;-3.944488731901061E-7
-1.7134342105263158E-7;3.281053862561479E-7
-1.7109473684210526E-7;1.0607238107221994E-6
-1.7084605263157894E-7;1.7597590343770365E-6
-1.7059736842105263E-7;2.389527623839906E-6
-1.703486842105263E-7;2.9500295791108084E-6
-1.701E-7;3.441264900189743E-6
-1.6985131578947368E-7;3.827169718882269E-6
-1.6960263157894736E-7;4.095864822328501E-6
-1.6935394736842105E-7;4.247350210528441E-6
-1.6910526315789473E-7;4.281625883482085E-6
-1.688565789473684E-7;4.186160746288848E-6
-1.686078947368421E-7;3.977924298637992E-6
-1.6835921052631578E-7;3.6569165405295184E-6
-1.6811052631578946E-7;3.2231374719634256E-6
-1.6786184210526315E-7;2.6929240173639157E-6
-1.6761315789473683E-7;2.104270223265977E-6
-1.6736447368421051E-7;1.4571760896696104E-6
-1.671157894736842E-7;7.516416165748158E-7
-1.6686710526315788E-7;2.532692433914441E-8
-1.6661842105263157E-7;-6.798220788418806E-7
-1.6636973684210525E-7;-1.3638053929682595E-6
-1.6612105263157893E-7;-2.026623018039992E-6
-1.6587236842105262E-7;-2.626220053670109E-6
-1.656236842105263E-7;-3.1353227676109945E-6
-1.6537499999999998E-7;-3.553931159862648E-6
-1.6512631578947367E-7;-3.882045230425069E-6
-1.6487763157894735E-7;-4.091892467249455E-6
-1.6462894736842103E-7;-4.1827530566625195E-6
-1.6438026315789472E-7;-4.154626998664261E-6
-1.641315789473684E-7;-4.007514293254679E-6
-1.6388289473684209E-7;-3.7400311393826736E-6
-1.6363421052631577E-7;-3.377965113128973E-6
-1.6338552631578945E-7;-2.921316214493578E-6
-1.6313684210526314E-7;-2.3700844434764873E-6
-1.6288815789473682E-7;-1.7495226432060753E-6
-1.626394736842105E-7;-1.1001414182661659E-6
-1.623907894736842E-7;-4.2194076865675934E-7
-1.6214210526315787E-7;2.8507930562214456E-7
-1.6189342105263155E-7;9.805804110093046E-7
-1.6164473684210524E-7;1.6274460407133049E-6
-1.6139605263157892E-7;2.2256761947341454E-6
-1.611473684210526E-7;2.7752708730718263E-6
-1.608986842105263E-7;3.238853212667558E-6
-1.6064999999999997E-7;3.5990168423324817E-6
-1.6040131578947366E-7;3.8557617620665975E-6
-1.6015263157894734E-7;4.009087971869905E-6
-1.5990394736842102E-7;4.041017572184042E-6
-1.596552631578947E-7;3.961171113044885E-6
-1.594065789473684E-7;3.769548594452436E-6
-1.5915789473684207E-7;3.466150016406693E-6
-1.5890921052631576E-7;3.059969209601648E-6
-1.5866052631578944E-7;2.5828958856294324E-6
-1.5841184210526313E-7;2.034930044490046E-6
-1.581631578947368E-7;1.4160716861834888E-6
-1.579144736842105E-7;7.578039362980867E-7
-1.576657894736842E-7;9.979464370075736E-8
-1.5741710526315789E-7;-5.579561916084994E-7
-1.5716842105263157E-7;-1.2154485696296834E-6
-1.5691973684210525E-7;-1.8330279604436005E-6
-1.5667105263157894E-7;-2.380859624251727E-6
-1.564223684210526E-7;-2.8589435610540634E-6
-1.5617368421052628E-7;-3.2672797708506097E-6
-1.5592499999999996E-7;-3.5756565737375567E-6
-1.5567631578947367E-7;-3.776946085289887E-6
-1.5542763157894736E-7;-3.8711483055076E-6
-1.5517894736842104E-7;-3.858263234390695E-6
-1.5493026315789472E-7;-3.730569636636485E-6
-1.546815789473684E-7;-3.506200732078493E-6
-1.5443289473684212E-7;-3.1851565207167206E-6
-1.541842105263158E-7;-2.7674370025511675E-6
-1.5393552631578948E-7;-2.2706299130865514E-6
-1.5368684210526317E-7;-1.729488516494778E-6
-1.5343815789473685E-7;-1.144012812775847E-6
-1.5318947368421053E-7;-5.142028019297586E-7
-1.5294078947368422E-7;1.2544936215735904E-7
-1.526921052631579E-7;7.392989724980518E-7
-1.5244342105263159E-7;1.3273460290923198E-6
-1.5219473684210527E-7;1.8895905319401627E-6
-1.5194605263157895E-7;2.390258615954986E-6
-1.5169736842105264E-7;2.8084903956112265E-6
-1.5144868421052632E-7;3.1442858709088836E-6
-1.512E-7;3.397645041847957E-6
-1.509513157894737E-7;3.5472558417532593E-6
-1.5070263157894737E-7;3.595750229971947E-6
-1.5045394736842105E-7;3.5431282065040206E-6
-1.5020526315789474E-7;3.3893897713494802E-6
-1.4995657894736842E-7;3.1365972608595872E-6
-1.497078947368421E-7;2.80898829105971E-6
-1.494592105263158E-7;2.406562861949849E-6
-1.4921052631578947E-7;1.9293209735300042E-6
-1.4896184210526316E-7;1.401062688115608E-6
-1.4871315789473684E-7;8.56335847008951E-7
-1.4846447368421052E-7;2.951404502100336E-7
-1.482157894736842E-7;-2.825235022811444E-7
-1.479671052631579E-7;-8.422306373371027E-7
-1.4771842105263157E-7;-1.3545124706008335E-6
-1.4746973684210526E-7;-1.8193690020723365E-6
-1.4722105263157894E-7;-2.236800231751612E-6
-1.4697236842105263E-7;-2.577105712881007E-6
-1.467236842105263E-7;-2.828437120049637E-6
-1.46475E-7;-2.9907944532575026E-6
-1.4622631578947368E-7;-3.0641777125046036E-6
-1.4597763157894736E-7;-3.0362675862318244E-6
-1.4572894736842104E-7;-2.91710939669138E-6
-1.4548026315789473E-7;-2.7067031438832694E-6
-1.452315789473684E-7;-2.405048827807493E-6
-1.449828947368421E-7;-2.0216945476914193E-6
-1.4473421052631578E-7;-1.583055911945229E-6
-1.4448552631578946E-7;-1.0891329205689222E-6
-1.4423684210526315E-7;-5.399255735624988E-7
-1.4398815789473683E-7;3.846153838852285E-8
-1.437394736842105E-7;6.156651423922717E-7
-1.434907894736842E-7;1.1916852384487477E-6
-1.4324210526315788E-7;1.766521826557951E-6
-1.4299342105263156E-7;2.3098175437089802E-6
-1.4274473684210525E-7;2.800728478519716E-6
-1.4249605263157893E-7;3.23925463099016E-6
-1.4224736842105261E-7;3.62539600112031E-6
-1.419986842105263E-7;3.938031820818673E-6
-1.4175E-7;4.174281230480835E-6
-1.415013157894737E-7;4.334144230106797E-6
-1.4125263157894738E-7;4.417620819696557E-6
-1.4100394736842106E-7;4.421417433104595E-6
-1.4075526315789474E-7;4.360487130634476E-6
-1.405065789473684E-7;4.2348299122861995E-6
-1.4025789473684208E-7;4.044445778059765E-6
-1.4000921052631577E-7;3.8039403791909523E-6
-1.3976052631578945E-7;3.537847211053321E-6
-1.3951184210526313E-7;3.24616627364687E-6
-1.3926315789473682E-7;2.928897566971601E-6
-1.390144736842105E-7;2.6104579450140227E-6
-1.3876578947368419E-7;2.3126338663304207E-6
-1.3851710526315787E-7;2.0354253309207953E-6
-1.3826842105263155E-7;1.7788323387851456E-6
-1.3801973684210524E-7;1.564816836994822E-6
-1.3777105263157892E-7;1.4016533989660544E-6
-1.375223684210526E-7;1.2893420246988438E-6
-1.372736842105263E-7;1.2278827141931893E-6
-1.3702499999999997E-7;1.2259570217680285E-6
-1.3677631578947368E-7;1.273703519623905E-6
-1.3652763157894737E-7;1.3711222077608182E-6
-1.3627894736842105E-7;1.5182130861787688E-6
-1.3603026315789473E-7;1.705607721794701E-6
-1.3578157894736842E-7;1.908315026809022E-6
-1.3553289473684207E-7;2.126335001221732E-6
-1.3528421052631576E-7;2.3596676450328317E-6
-1.3503552631578944E-7;2.58374198644358E-6
-1.3478684210526312E-7;2.7669734875774706E-6
-1.345381578947368E-7;2.909362148434503E-6
-1.342894736842105E-7;3.0109079690146772E-6
-1.3404078947368417E-7;3.040271885781863E-6
-1.3379210526315789E-7;2.968845627660035E-6
-1.3354342105263157E-7;2.7966291946491934E-6
-1.3329473684210525E-7;2.5236225867493385E-6
-1.3304605263157894E-7;2.1212808898272644E-6
-1.3279736842105262E-7;1.569943718205311E-6
-1.325486842105263E-7;8.696110718834785E-7
-1.323E-7;2.028295086176681E-8
-1.3205131578947367E-7;-9.977441408525567E-7
-1.3180263157894735E-7;-2.1953574126944093E-6
-1.3155394736842104E-7;-3.5725568646637906E-6
-1.3130526315789472E-7;-5.129342496760701E-6
-1.310565789473684E-7;-6.876643243051975E-6
-1.308078947368421E-7;-8.822229941469485E-6
-1.3055921052631577E-7;-1.0966102592013233E-5
-1.3031052631578946E-7;-1.3308261194683216E-5
-1.3006184210526314E-7;-1.5856440981482923E-5
-1.2981315789473682E-7;-1.862301113401908E-5
-1.295644736842105E-7;-2.1607971652291685E-5
-1.293157894736842E-7;-2.4811322536300745E-5
-1.2906710526315787E-7;-2.8245322469831055E-5
-1.2881842105263156E-7;-3.193227906291733E-5
-1.2856973684210527E-7;-3.5872192315559566E-5
-1.2832105263157895E-7;-4.0065062227757774E-5
-1.2807236842105264E-7;-4.453310071494147E-5
-1.278236842105263E-7;-4.930822831475906E-5
-1.2757499999999998E-7;-5.439044502721058E-5
-1.2732631578947366E-7;-5.977975085229599E-5
-1.2707763157894734E-7;-6.550813361920322E-5
-1.2682894736842103E-7;-7.161046624578886E-5
-1.2658026315789474E-7;-7.808674873205292E-5
-1.2633157894736842E-7;-8.493698107799539E-5
-1.260828947368421E-7;-9.219642545043229E-5
-1.258342105263158E-7;-9.98919615938253E-5
-1.2558552631578947E-7;-1.080235895081744E-4
-1.2533684210526316E-7;-1.1659130919347963E-4
-1.2508815789473684E-7;-1.2562284167443464E-4
-1.2483947368421052E-7;-1.3512531700924166E-4
-1.245907894736842E-7;-1.4509873519790063E-4
-1.243421052631579E-7;-1.5554309624041157E-4
-1.2409342105263157E-7;-1.6646691384066074E-4
-1.2384473684210523E-7;-1.7784789667313106E-4
-1.2359605263157891E-7;-1.8968604473782255E-4
-1.233473684210526E-7;-2.0198135803473522E-4
-1.2309868421052628E-7;-2.1471354369824108E-4
-1.2284999999999997E-7;-2.278239503860504E-4
-1.2260131578947368E-7;-2.413125780981632E-4
-1.2235263157894736E-7;-2.551794268345795E-4
-1.2210394736842104E-7;-2.693685526308953E-4
-1.2185526315789473E-7;-2.837786764177088E-4
-1.216065789473684E-7;-2.9840979819502E-4
-1.213578947368421E-7;-3.132619179628289E-4
-1.2110921052631578E-7;-3.282373200763936E-4
-1.2086052631578946E-7;-3.431827394028915E-4
-1.2061184210526314E-7;-3.5809817594232256E-4
-1.2036315789473683E-7;-3.7298362969468676E-4
-1.201144736842105E-7;-3.8769045545789915E-4
-1.198657894736842E-7;-4.019974962810446E-4
-1.1961710526315788E-7;-4.159047521641231E-4
-1.1936842105263156E-7;-4.2941222310713466E-4
-1.1911973684210525E-7;-4.423046441753653E-4
-1.1887105263157893E-7;-4.542693591203177E-4
-1.1862236842105261E-7;-4.6530636794199184E-4
-1.183736842105263E-7;-4.7541567064038765E-4
-1.1812499999999998E-7;-4.8429194160604105E-4
-1.1787631578947366E-7;-4.91501830866956E-4
-1.1762763157894735E-7;-4.970453384231323E-4
-1.1737894736842103E-7;-5.009224642745702E-4
-1.1713026315789472E-7;-5.02708681664867E-4
-1.168815789473684E-7;-5.01819954862498E-4
-1.1663289473684208E-7;-4.982562838674632E-4
-1.1638421052631577E-7;-4.920176686797624E-4
-1.1613552631578946E-7;-4.8253029450143637E-4
-1.1588684210526315E-7;-4.6903421166640376E-4
-1.1563815789473684E-7;-4.515294201746648E-4
-1.1538947368421053E-7;-4.300159200262192E-4
-1.1514078947368421E-7;-4.0374513957275716E-4
-1.1489210526315788E-7;-3.717648171167371E-4
-1.1464342105263156E-7;-3.3407495265815913E-4
-1.1439473684210524E-7;-2.906755461970232E-4
-1.1414605263157893E-7;-2.4062651619328226E-4
-1.1389736842105262E-7;-1.8277684854883127E-4
-1.1364868421052631E-7;-1.1712654326367015E-4
-1.134E-7;-4.3675600337798934E-5
-1.1315131578947368E-7;3.871445152161022E-5
-1.1290263157894736E-7;1.3139144527554573E-4
-1.1265394736842106E-7;2.343553809240076E-4
-1.1240526315789474E-7;3.4760625846699583E-4
-1.1215657894736843E-7;4.7247953661727767E-4
-1.1190789473684211E-7;6.10511903923453E-4
-1.116592105263158E-7;7.61703360385522E-4
-1.1141052631578948E-7;9.260539060034845E-4
-1.1116184210526316E-7;0.0011050887124778293
-1.1091315789473685E-7;0.0013005195821972151
-1.1066447368421053E-7;0.0015123465151616424
-1.1041578947368421E-7;0.0017405695113711112
-1.1016710526315791E-7;0.0019868906796291466
-1.099184210526316E-7;0.0022531731719231795
-1.0966973684210526E-7;0.002539416988253209
-1.0942105263157896E-7;0.0028456221286192354
-1.0917236842105264E-7;0.0031736452563835456
-1.0892368421052633E-7;0.003525457652495163
-1.0867500000000001E-7;0.0039010593169540872
-1.084263157894737E-7;0.004300450249760319
-1.0817763157894738E-7;0.00472560035375723
-1.0792894736842106E-7;0.005178513290662914
-1.0768026315789475E-7;0.005659189060477372
-1.0743157894736843E-7;0.006167627663200604
-1.071828947368421E-7;0.006705838954981709
-1.069342105263158E-7;0.0072757373011476355
-1.0668552631578948E-7;0.007877322701698383
-1.0643684210526315E-7;0.00851059515663395
-1.0618815789473685E-7;0.009177485755991864
-1.0593947368421053E-7;0.009879641929180706
-1.056907894736842E-7;0.010617063676200479
-1.054421052631579E-7;0.011389750997051182
-1.0519342105263158E-7;0.012199381894668855
-1.0494473684210527E-7;0.0130470990419778
-1.0469605263157895E-7;0.01393290243897801
-1.0444736842105263E-7;0.014856792085669495
-1.0419868421052632E-7;0.01581995859690214
-1.0395E-7;0.01682274352133024
-1.0370131578947368E-7;0.017865146858953795
-1.0345263157894737E-7;0.01894716860977281
-1.0320394736842105E-7;0.020069219226608804
-1.0295526315789474E-7;0.02123048924913901
-1.0270657894736842E-7;0.02243097867736343
-1.024578947368421E-7;0.023670687511282058
-1.0220921052631579E-7;0.02494889976923513
-1.0196052631578947E-7;0.026263256168244726
-1.0171184210526315E-7;0.027613756708310844
-1.0146315789473684E-7;0.029000401389433484
-1.0121447368421052E-7;0.030420952624046697
-1.009657894736842E-7;0.031871054363353864
-1.0071710526315789E-7;0.03335070660735498
-1.0046842105263157E-7;0.034859909356050045
-1.0021973684210526E-7;0.03639446017504498
-9.997105263157894E-8;0.03794750715781996
-9.972236842105262E-8;0.03951905030437498
-9.94736842105263E-8;0.041109089614710034
-9.922499999999999E-8;0.042710962448459476
-9.897631578947367E-8;0.044314763167534875
-9.872763157894736E-8;0.04592049177193621
-9.847894736842104E-8;0.0475281482616635
-9.823026315789472E-8;0.0491280555162485
-9.798157894736841E-8;0.05070663322290783
-9.773289473684209E-8;0.05226388138164149
-9.748421052631578E-8;0.05379979999244948
-9.723552631578946E-8;0.05530107964324031
-9.698684210526314E-8;0.05674978533738278
-9.673815789473683E-8;0.058145917074876846
-9.648947368421051E-8;0.059489474855722535
-9.62407894736842E-8;0.06076283914467901
-9.599210526315788E-8;0.06194299804906826
-9.574342105263156E-8;0.06302995156889027
-9.549473684210524E-8;0.06402369970414505
-9.524605263157893E-8;0.06490159124741327
-9.499736842105261E-8;0.06563480396923906
-9.47486842105263E-8;0.06622333786962242
-9.449999999999998E-8;0.06666719294856337
-9.425131578947366E-8;0.06693795150428514
-9.400263157894735E-8;0.06700027868099828
-9.375394736842103E-8;0.06685417447870276
-9.350526315789471E-8;0.06649963889739861
-9.32565789473684E-8;0.06590178161854846
-9.300789473684208E-8;0.06501813215569485
-9.275921052631576E-8;0.06384869050883785
-9.251052631578945E-8;0.06239345667797741
-9.226184210526313E-8;0.060610438199339284
-9.201315789473682E-8;0.05844953283795846
-9.17644736842105E-8;0.05591074059383495
-9.151578947368418E-8;0.052994061466968743
-9.126710526315787E-8;0.04964989541819891
-9.101842105263155E-8;0.04582018202894205
-9.076973684210523E-8;0.04150492129919815
-9.052105263157893E-8;0.03670411322896722
-9.027236842105261E-8;0.031360211633938595
-9.002368421052631E-8;0.02540707873471432
-8.977500000000001E-8;0.018844714531294417
-8.952631578947369E-8;0.011673119023678874
-8.927763157894738E-8;0.003826665677011862
-8.902894736842105E-8;-0.004768736600186347
-8.878026315789472E-8;-0.014113087807915752
-8.85315789473684E-8;-0.024206387946176352
-8.828289473684208E-8;-0.03512223795256397
-8.803421052631578E-8;-0.04694227461899739
-8.778552631578948E-8;-0.05966649794547659
-8.753684210526316E-8;-0.0732949079320016
-8.728815789473684E-8;-0.08790869377068411
-8.703947368421051E-8;-0.10359629662706817
-8.679078947368419E-8;-0.12035771650115379
-8.654210526315787E-8;-0.13819295339294094
-8.629342105263155E-8;-0.15719006856963613
-8.604473684210525E-8;-0.17744317058356987
-8.579605263157895E-8;-0.1989522594347422
-8.554736842105263E-8;-0.22171733512315314
-8.529868421052631E-8;-0.24583222304949637
-8.504999999999998E-8;-0.27139509599171574
-8.480131578947365E-8;-0.29840595394981134
-8.455263157894734E-8;-0.3268647969237831
-8.430394736842103E-8;-0.35686964418395917
-8.405526315789472E-8;-0.3885205924637261
-8.380657894736843E-8;-0.421817641763084
-8.355789473684211E-8;-0.4567607920820327
-8.33092105263158E-8;-0.493450152626834
-8.306052631578948E-8;-0.5319850061586088
-8.281184210526316E-8;-0.5723653526773568
-8.256315789473685E-8;-0.6145911921830782
-8.231447368421053E-8;-0.6587620248646003
-8.206578947368421E-8;-0.7049729438143821
-8.18171052631579E-8;-0.753223949032424
-8.156842105263158E-8;-0.8035150405187256
-8.131973684210527E-8;-0.8559417742469202
-8.107105263157895E-8;-0.9105910265926217
-8.082236842105263E-8;-0.9674627975558302
-8.057368421052632E-8;-1.0265570871365455
-8.0325E-8;-1.0879615207880913
-8.007631578947368E-8;-1.1517500931559597
-7.982763157894737E-8;-1.217922804240151
-7.957894736842105E-8;-1.286479654040665
-7.933026315789473E-8;-1.357495712178598
-7.908157894736842E-8;-1.4310268242799065
-7.88328947368421E-8;-1.5070729903445907
-7.858421052631579E-8;-1.5856342103726506
-7.833552631578947E-8;-1.6667677683451372
-7.808684210526315E-8;-1.7505055420962978
-7.783815789473684E-8;-1.8368475316261326
-7.758947368421052E-8;-1.9257937369346414
-7.73407894736842E-8;-2.017377871807771
-7.70921052631579E-8;-2.111601535785861
-7.68434210526316E-8;-2.208464728868911
-7.659473684210528E-8;-2.307967451056922
-7.634605263157896E-8;-2.4101135654111396
-7.609736842105263E-8;-2.514867657677599
-7.58486842105263E-8;-2.622229727856301
-7.559999999999999E-8;-2.732199775947245
-7.535131578947367E-8;-2.84474510347145
-7.510263157894737E-8;-2.9597861991122953
-7.485394736842107E-8;-3.0773230628697794
-7.460526315789475E-8;-3.1973556947439037
-7.435657894736843E-8;-3.3198077696118937
-7.41078947368421E-8;-3.444548343743264
-7.385921052631577E-8;-3.571577417138014
-7.361052631578946E-8;-3.700894989796145
-7.336184210526314E-8;-3.8323737847652755
-7.311315789473684E-8;-3.965823961897041
-7.286447368421054E-8;-4.101245521191444
-7.261578947368422E-8;-4.238638462648483
-7.23671052631579E-8;-4.3778170939722365
-7.211842105263157E-8;-4.518525243760915
-7.186973684210524E-8;-4.660762912014517
-7.162105263157893E-8;-4.8045300987330455
-7.137236842105262E-8;-4.949575250544923
-7.112368421052632E-8;-5.095568652051685
-7.0875E-8;-5.242510303253328
-7.06263157894737E-8;-5.390400204149853
-7.037763157894738E-8;-5.538913703751659
-7.012894736842106E-8;-5.687640773498661
-6.988026315789473E-8;-5.836581413390859
-6.963157894736841E-8;-5.985735623428254
-6.938289473684209E-8;-6.134698848045806
-6.913421052631578E-8;-6.282974657401285
-6.888552631578946E-8;-6.430563051494691
-6.863684210526314E-8;-6.577464030326025
-6.838815789473683E-8;-6.723186993342236
-6.813947368421051E-8;-6.867143940450743
-6.78907894736842E-8;-7.009334871651545
-6.764210526315788E-8;-7.149759786944642
-6.739342105263156E-8;-7.28783680514909
-6.714473684210525E-8;-7.422882330895316
-6.689605263157893E-8;-7.554896364183323
-6.664736842105261E-8;-7.68387890501311
-6.63986842105263E-8;-7.809152686165571
-6.614999999999998E-8;-7.929935838215164
-6.590131578947366E-8;-8.04622836116189
-6.565263157894735E-8;-8.15803025500575
-6.540394736842103E-8;-8.264566094669743
-6.515526315789471E-8;-8.364954581032906
-6.49065789473684E-8;-8.459195714095243
-6.465789473684208E-8;-8.54728949385675
-6.440921052631578E-8;-8.628361077313633
-6.416052631578946E-8;-8.701430256900828
-6.391184210526316E-8;-8.76649703261834
-6.366315789473686E-8;-8.823561404466163
-6.341447368421054E-8;-8.871649518311813
-6.316578947368422E-8;-8.909684591326593
-6.291710526315791E-8;-8.937666623510498
-6.266842105263159E-8;-8.955595614863533
-6.241973684210527E-8;-8.962400910276173
-6.217105263157896E-8;-8.956913415848817
-6.192236842105264E-8;-8.93913313158146
-6.167368421052633E-8;-8.909060057474106
-6.142500000000001E-8;-8.865530871648996
-6.117631578947369E-8;-8.807290465440916
-6.092763157894738E-8;-8.734338838849862
-6.067894736842106E-8;-8.646675991875837
-6.043026315789474E-8;-8.543052097187347
-6.018157894736843E-8;-8.422134434900274
-5.993289473684211E-8;-8.283923005014612
-5.96842105263158E-8;-8.128417807530365
-5.9435526315789465E-8;-7.954290775642248
-5.918684210526314E-8;-7.760142125508353
-5.893815789473681E-8;-7.545971857128684
-5.868947368421049E-8;-7.311779970503239
-5.844078947368417E-8;-7.056170569452273
-5.8192105263157857E-8;-6.777689480820723
-5.794342105263154E-8;-6.47633670460859
-5.7694736842105224E-8;-6.152112240815874
-5.7446052631578914E-8;-5.803564905267358
-5.719736842105261E-8;-5.4292008568944095
-5.69486842105263E-8;-5.029020095697025
-5.67E-8;-4.603022621675205
-5.645131578947368E-8;-4.149716558501814
-5.6202631578947365E-8;-3.6675850151028615
-5.595394736842105E-8;-3.156627991478346
-5.570526315789473E-8;-2.6168454876282685
-5.5456578947368416E-8;-2.0467214389944473
-5.52078947368421E-8;-1.444734201615709
-5.4959210526315784E-8;-0.8108837754920547
-5.471052631578947E-8;-0.14517016062348434
-5.446184210526315E-8;0.5539286974703419
-5.4213157894736835E-8;1.2879194938207899
-5.396447368421052E-8;2.0568022284278595
-5.37157894736842E-8;2.860576901291551
-5.3467105263157885E-8;3.700751935526199
-5.321842105263157E-8;4.57879828803926
-5.296973684210525E-8;5.494715958830735
-5.2721052631578936E-8;6.4485049479006245
-5.247236842105262E-8;7.4416393175844355
-5.2223684210526304E-8;8.47553275507255
-5.197499999999999E-8;9.550185260364968
-5.172631578947367E-8;10.665596833461688
-5.1477631578947355E-8;11.823185681543416
-5.122894736842104E-8;13.024286308413222
-5.098026315789472E-8;14.268898714071103
-5.0731578947368405E-8;15.557022898517063
-5.048289473684209E-8;16.889999313490613
-5.023421052631578E-8;18.269061352065147
-4.998552631578946E-8;19.694209014240666
-4.973684210526315E-8;21.16544230001717
-4.948815789473684E-8;22.6840019670271
-4.9239473684210534E-8;24.250998730988204
-4.899078947368423E-8;25.866432591900484
-4.8742105263157914E-8;27.53030354976394
-4.84934210526316E-8;29.24373106484867
-4.824473684210527E-8;31.007682351114298
-4.799605263157894E-8;32.82215740856083
-4.774736842105262E-8;34.687156237188255
-4.7498684210526306E-8;36.60365611319079
-4.725E-8;38.5724610563695
-4.70013157894737E-8;40.593571066724394
-4.6752631578947383E-8;42.66698614425546
-4.650394736842107E-8;44.79352160061839
-4.625526315789474E-8;46.97380009686635
-4.600657894736841E-8;49.20782163299933
-4.575789473684209E-8;51.49558620901733
-4.5509210526315775E-8;53.83772889402417
-4.5260526315789465E-8;56.234674747472496
-4.5011842105263156E-8;58.68642376936232
-4.476315789473684E-8;61.19297595969365
-4.451447368421052E-8;63.754769764446195
-4.42657894736842E-8;66.37201869827278
-4.401710526315788E-8;69.04472276117339
-4.376842105263156E-8;71.77288195314802
-4.3519736842105244E-8;74.55672399375611
-4.3271052631578934E-8;77.3962395526596
-4.3022368421052625E-8;80.29142862985844
-4.277368421052631E-8;83.24229122535269
-4.252499999999999E-8;86.24883285247871
-4.2276315789473676E-8;89.31081296779838
-4.202763157894736E-8;92.42823157131173
-4.177894736842104E-8;95.6010886630187
-4.1530263157894727E-8;98.82915898652483
-4.128157894736841E-8;102.11196556728886
-4.1032894736842094E-8;105.44950840531081
-4.078421052631578E-8;108.84178750059063
-4.053552631578946E-8;112.28834140221262
-4.0286842105263145E-8;115.7884547732315
-4.003815789473683E-8;119.34212761364732
-3.978947368421051E-8;122.94935992346004
-3.9540789473684196E-8;126.60945191249854
-3.929210526315788E-8;130.3214512898569
-3.904342105263156E-8;134.08535805553507
-3.8794736842105247E-8;137.9011722095331
-3.854605263157893E-8;141.7679568155695
-3.8297368421052614E-8;145.68452735226163
-3.80486842105263E-8;149.6508838196095
-3.779999999999998E-8;153.6670262176131
-3.7551315789473665E-8;157.7317849746839
-3.7302631578947355E-8;161.84375128615315
-3.7053947368421045E-8;166.00292515202082
-3.680526315789473E-8;170.20930657228695
-3.655657894736842E-8;174.461501081277
-3.630789473684211E-8;178.7578866166877
-3.60592105263158E-8;183.09846317851895
-3.581052631578949E-8;187.48323076677082
-3.556184210526317E-8;191.91058085168766
-3.5313157894736844E-8;196.37869202849316
-3.506447368421052E-8;200.8875642971874
-3.48157894736842E-8;205.4371976577703
-3.456710526315789E-8;210.02578324950824
-3.431842105263158E-8;214.6513169021535
-3.406973684210527E-8;219.31379861570605
-3.382105263157896E-8;224.0132283901659
-3.3572368421052636E-8;228.74761344543774
-3.332368421052631E-8;233.5147858173754
-3.307499999999999E-8;238.31474550597883
-3.282631578947367E-8;243.14749251124812
-3.257763157894736E-8;248.01086895960265
-3.232894736842105E-8;252.90256414737362
-3.208026315789474E-8;257.8225780745611
-3.183157894736843E-8;262.77091074116504
-3.1582894736842105E-8;267.74526011148174
-3.133421052631578E-8;272.74319551794605
-3.108552631578946E-8;277.7647169605579
-3.0836842105263136E-8;282.80982443931737
-3.058815789473683E-8;287.87609443452993
-3.0339473684210523E-8;292.96100039899756
-3.0090789473684214E-8;298.0645423327202
-2.984210526315791E-8;303.18672023569786
-2.9593421052631594E-8;308.32501311901615
-2.9344736842105278E-8;313.47682349126404
-2.909605263157896E-8;318.6421513524416
-2.8847368421052645E-8;323.8209967025487
-2.859868421052633E-8;329.01076597913857
-2.8350000000000012E-8;334.2088160458082
-2.8101315789473696E-8;339.4151469025576
-2.785263157894738E-8;344.6297585493867
-2.7603947368421067E-8;349.85001014037357
-2.7355263157894753E-8;355.0732380621393
-2.710657894736844E-8;360.2994423146837
-2.6857894736842127E-8;365.5286228980069
-2.6609210526315808E-8;370.7581168717435
-2.6360526315789488E-8;375.98526470521654
-2.611184210526317E-8;381.21006639842614
-2.586315789473685E-8;386.43252195137234
-2.5614473684210536E-8;391.6499709386162
-2.5365789473684223E-8;396.8597814276882
-2.511710526315791E-8;402.0619534185883
-2.4868421052631596E-8;407.2564869113166
-2.461973684210527E-8;412.4407475867285
-2.4371052631578944E-8;417.6121532037751
-2.4122368421052618E-8;422.77070376245644
-2.387368421052629E-8;427.9163992627725
-2.3624999999999985E-8;433.04665368397616
-2.337631578947368E-8;438.1589548335215
-2.3127631578947372E-8;443.25330271140854
-2.2878947368421066E-8;448.32969731763717
-2.2630263157894743E-8;453.3856214054178
-2.238157894736842E-8;458.4186511987889
-2.2132894736842097E-8;463.42878669775047
-2.1884210526315774E-8;468.41602790230246
-2.1635526315789464E-8;473.37794484241755
-2.1386842105263154E-8;478.31221833619173
-2.1138157894736844E-8;483.21884838362473
-2.0889473684210535E-8;488.0978349847167
-2.0640789473684212E-8;492.9468517714687
-2.039210526315789E-8;497.7636979814057
-2.0143421052631566E-8;502.5483736145278
-1.9894736842105243E-8;507.300878670835
-1.9646052631578933E-8;512.0190043675984
-1.9397368421052623E-8;516.7006797065568
-1.9148684210526314E-8;521.3459046877099
-1.8900000000000004E-8;525.954679311058
-1.865131578947368E-8;530.5249238889116
-1.8402631578947358E-8;535.0547059565039
-1.8153947368421035E-8;539.5440255138345
-1.7905263157894712E-8;543.9928825609036
-1.7656578947368402E-8;548.3993354432861
-1.7407894736842092E-8;552.76159637109
-1.7159210526315783E-8;557.0796653443158
-1.6910526315789473E-8;561.3535423629631
-1.666184210526316E-8;565.5814301165474
-1.6413157894736847E-8;569.7616890081356
-1.6164473684210534E-8;573.8943190377277