% Model:              ML端口边界_高斯光极限精度比较1.32.mph
% Version:            COMSOL 6.2.0.415
% Date:               Aug 6 2024, 09:23
% Dimension:          1
% Nodes:              1521
% Expressions:        1
% Description:        线结果图
% x 坐标 (m);imag(ewfd.Ez)
-1.8899999999999999E-7;-3.7350203928444017E-6
-1.8875131578947367E-7;-3.2780981760512325E-6
-1.8850263157894735E-7;-2.742096049353736E-6
-1.8825394736842104E-7;-2.127014012751913E-6
-1.8800526315789472E-7;-1.4328520662457624E-6
-1.877565789473684E-7;-6.946504521598014E-7
-1.875078947368421E-7;4.245622068012918E-8
-1.8725921052631577E-7;7.784679522740294E-7
-1.8701052631578945E-7;1.5133847426218991E-6
-1.8676184210526314E-7;2.2020672482421843E-6
-1.8651315789473682E-7;2.8099801309305905E-6
-1.862644736842105E-7;3.3371233906871175E-6
-1.860157894736842E-7;3.783497027511766E-6
-1.8576710526315787E-7;4.114117300269202E-6
-1.8551842105263156E-7;4.320524319727533E-6
-1.8526973684210524E-7;4.402718085886758E-6
-1.8502105263157892E-7;4.360698598746876E-6
-1.847723684210526E-7;4.185314708250139E-6
-1.845236842105263E-7;3.897942126163774E-6
-1.8427499999999997E-7;3.49858085248778E-6
-1.8402631578947366E-7;2.9872308872221576E-6
-1.8377763157894734E-7;2.384643247757233E-6
-1.8352894736842103E-7;1.732407901191054E-6
-1.832802631578947E-7;1.030524847523621E-6
-1.830315789473684E-7;2.789940867549342E-7
-1.8278289473684208E-7;-4.808732391364476E-7
-1.8253421052631579E-7;-1.2059315024835653E-6
-1.8228552631578947E-7;-1.8961807032864188E-6
-1.8203684210526315E-7;-2.551620841545008E-6
-1.8178815789473684E-7;-3.1289150543734636E-6
-1.8153947368421052E-7;-3.602670915377222E-6
-1.812907894736842E-7;-3.972888424556285E-6
-1.810421052631579E-7;-4.23956758191065E-6
-1.8079342105263157E-7;-4.376740839080704E-6
-1.8054473684210526E-7;-4.388075257538484E-6
-1.8029605263157894E-7;-4.273570837283989E-6
-1.8004736842105262E-7;-4.033227578317219E-6
-1.797986842105263E-7;-3.6700110219495642E-6
-1.7955E-7;-3.214915706277809E-6
-1.7930131578947367E-7;-2.667941631301954E-6
-1.7905263157894736E-7;-2.0290887970219997E-6
-1.7880394736842104E-7;-1.3288370542123529E-6
-1.7855526315789472E-7;-6.115636341691977E-7
-1.783065789473684E-7;1.2273146310746604E-7
-1.780578947368421E-7;8.740482376176383E-7
-1.7780921052631578E-7;1.5981084362236308E-6
-1.7756052631578946E-7;2.257018510884675E-6
-1.7731184210526317E-7;2.8507784616007704E-6
-1.7706315789473685E-7;3.3793882883719166E-6
-1.7681447368421054E-7;3.8045950429133255E-6
-1.7656578947368422E-7;4.1118652757795235E-6
-1.763171052631579E-7;4.301198986970512E-6
-1.760684210526316E-7;4.372596176486288E-6
-1.7581973684210527E-7;4.3108673929221995E-6
-1.7557105263157895E-7;4.131199144040752E-6
-1.7532236842105264E-7;3.833591429841946E-6
-1.7507368421052632E-7;3.418044250325781E-6
-1.74825E-7;2.8990846216382308E-6
-1.745763157894737E-7;2.3146824803124573E-6
-1.7432763157894737E-7;1.66483782634846E-6
-1.7407894736842106E-7;9.495506597462391E-7
-1.7383026315789474E-7;2.0642107794395518E-7
-1.7358157894736842E-7;-5.208492150376118E-7
-1.733328947368421E-7;-1.232260219198462E-6
-1.730842105263158E-7;-1.927811934538595E-6
-1.7283552631578947E-7;-2.563720205412479E-6
-1.7258684210526316E-7;-3.110039605637055E-6
-1.7233815789473684E-7;-3.566770135212323E-6
-1.7208947368421053E-7;-3.933911794138283E-6
-1.718407894736842E-7;-4.181023807056434E-6
-1.715921052631579E-7;-4.305131804439619E-6
-1.7134342105263158E-7;-4.306235786287836E-6
-1.7109473684210526E-7;-4.184335752601088E-6
-1.7084605263157894E-7;-3.9357715581543625E-6
-1.7059736842105263E-7;-3.5856419277730423E-6
-1.703486842105263E-7;-3.133946861457126E-6
-1.701E-7;-2.5806863592066154E-6
-1.6985131578947368E-7;-1.9503882077155363E-6
-1.6960263157894736E-7;-1.2848287631459516E-6
-1.6935394736842105E-7;-5.840080254978609E-7
-1.6910526315789473E-7;1.520740052287355E-7
-1.688565789473684E-7;8.818452785473037E-7
-1.686078947368421E-7;1.5655527887581622E-6
-1.6835921052631578E-7;2.2031965358613107E-6
-1.6811052631578946E-7;2.794776519856749E-6
-1.6786184210526315E-7;3.3002903336881787E-6
-1.6761315789473683E-7;3.6996184003628193E-6
-1.6736447368421051E-7;3.99276071988067E-6
-1.671157894736842E-7;4.17971729224173E-6
-1.6686710526315788E-7;4.239780062372496E-6
-1.6661842105263157E-7;4.1811614513271935E-6
-1.6636973684210525E-7;4.003861459105822E-6
-1.6612105263157893E-7;3.7078800857083827E-6
-1.6587236842105262E-7;3.3007655841399907E-6
-1.656236842105263E-7;2.8150866372727794E-6
-1.6537499999999998E-7;2.2508432451067488E-6
-1.6512631578947367E-7;1.6080354076418993E-6
-1.6487763157894735E-7;9.187857571624248E-7
-1.6462894736842103E-7;2.252936860599351E-7
-1.6438026315789472E-7;-4.7244080566556966E-7
-1.641315789473684E-7;-1.1744177180140896E-6
-1.6388289473684209E-7;-1.838471734731887E-6
-1.6363421052631577E-7;-2.43156617122882E-6
-1.6338552631578945E-7;-2.953701027504888E-6
-1.6313684210526314E-7;-3.4048763035600924E-6
-1.6288815789473682E-7;-3.7516678856177956E-6
-1.626394736842105E-7;-3.984664921043466E-6
-1.623907894736842E-7;-4.103867409837103E-6
-1.6214210526315787E-7;-4.109275351998706E-6
-1.6189342105263155E-7;-3.990845335508528E-6
-1.6164473684210524E-7;-3.7665758884774973E-6
-1.6139605263157892E-7;-3.4364670109056155E-6
-1.611473684210526E-7;-3.0005187027928823E-6
-1.608986842105263E-7;-2.4761333875660823E-6
-1.6064999999999997E-7;-1.9003184511629682E-6
-1.6040131578947366E-7;-1.2730738935835396E-6
-1.6015263157894734E-7;-5.94399714827797E-7
-1.5990394736842102E-7;9.899547088014072E-8
-1.596552631578947E-7;7.677480711023659E-7
-1.594065789473684E-7;1.4118580858388784E-6
-1.5915789473684207E-7;2.0313255150896786E-6
-1.5890921052631576E-7;2.5866626398149726E-6
-1.5866052631578944E-7;3.053528489671847E-6
-1.5841184210526313E-7;3.431923064660302E-6
-1.581631578947368E-7;3.721846364780337E-6
-1.579144736842105E-7;3.898472903330414E-6
-1.576657894736842E-7;3.96288244102128E-6
-1.5741710526315789E-7;3.915074977852937E-6
-1.5716842105263157E-7;3.7550505138253843E-6
-1.5691973684210525E-7;3.4832632275546603E-6
-1.5667105263157894E-7;3.125174541801394E-6
-1.564223684210526E-7;2.680784456565586E-6
-1.5617368421052628E-7;2.150092971847236E-6
-1.5592499999999996E-7;1.55807123866884E-6
-1.5567631578947367E-7;9.427962877075462E-7
-1.5542763157894736E-7;3.042681189633534E-7
-1.5517894736842104E-7;-3.57513267563738E-7
-1.5493026315789472E-7;-1.004615081203179E-6
-1.546815789473684E-7;-1.6033868210015339E-6
-1.5443289473684212E-7;-2.153828486958803E-6
-1.541842105263158E-7;-2.6559400790749854E-6
-1.5393552631578948E-7;-3.0758151555851463E-6
-1.5368684210526317E-7;-3.3988865577839786E-6
-1.5343815789473685E-7;-3.6251542856714825E-6
-1.5318947368421053E-7;-3.754618339247658E-6
-1.5294078947368422E-7;-3.772177608633174E-6
-1.526921052631579E-7;-3.688206463931017E-6
-1.5244342105263159E-7;-3.502704905141187E-6
-1.5219473684210527E-7;-3.215672932263684E-6
-1.5194605263157895E-7;-2.8369131297531935E-6
-1.5169736842105264E-7;-2.396455614627237E-6
-1.5144868421052632E-7;-1.8943003868858151E-6
-1.512E-7;-1.3304474465289271E-6
-1.509513157894737E-7;-7.345669552017656E-7
-1.5070263157894737E-7;-1.4257248573068268E-7
-1.5045394736842105E-7;4.4553596188432163E-7
-1.5020526315789474E-7;1.0297583876432474E-6
-1.4995657894736842E-7;1.5741795846260863E-6
-1.497078947368421E-7;2.052923121686536E-6
-1.494592105263158E-7;2.465988998824597E-6
-1.4921052631578947E-7;2.813377216040269E-6
-1.4896184210526316E-7;3.06886025810798E-6
-1.4871315789473684E-7;3.227577565620976E-6
-1.4846447368421052E-7;3.2895291385792575E-6
-1.482157894736842E-7;3.254714976982824E-6
-1.479671052631579E-7;3.1177368164432235E-6
-1.4771842105263157E-7;2.8961244961973494E-6
-1.4746973684210526E-7;2.5898780162452023E-6
-1.4722105263157894E-7;2.1989973765867815E-6
-1.4697236842105263E-7;1.740524664977554E-6
-1.467236842105263E-7;1.2459137092593571E-6
-1.46475E-7;7.15164509432191E-7
-1.4622631578947368E-7;1.4827706549605552E-7
-1.4597763157894736E-7;-4.2352860744767715E-7
-1.4572894736842104E-7;-9.690394300882503E-7
-1.4548026315789473E-7;-1.488255402425664E-6
-1.452315789473684E-7;-1.981176524459918E-6
-1.449828947368421E-7;-2.4164858537660887E-6
-1.4473421052631578E-7;-2.776558853537548E-6
-1.4448552631578946E-7;-3.061395523774294E-6
-1.4423684210526315E-7;-3.270995864476329E-6
-1.4398815789473683E-7;-3.3873613419484823E-6
-1.437394736842105E-7;-3.4131001749716776E-6
-1.434907894736842E-7;-3.3482123635459157E-6
-1.4324210526315788E-7;-3.1926979076711966E-6
-1.4299342105263156E-7;-2.948702829805547E-6
-1.4274473684210525E-7;-2.6363608005771953E-6
-1.4249605263157893E-7;-2.255671819986141E-6
-1.4224736842105261E-7;-1.8066358880323843E-6
-1.419986842105263E-7;-1.3090471643355465E-6
-1.4175E-7;-7.901507906004791E-7
-1.415013157894737E-7;-2.4994676682718237E-7
-1.4125263157894738E-7;3.115649069843439E-7
-1.4100394736842106E-7;8.672099921783582E-7
-1.4075526315789474E-7;1.3957373855255115E-6
-1.405065789473684E-7;1.8971470870258038E-6
-1.4025789473684208E-7;2.371439096679235E-6
-1.4000921052631577E-7;2.7971440904710693E-6
-1.3976052631578945E-7;3.1688228729793276E-6
-1.3951184210526313E-7;3.4864754442040094E-6
-1.3926315789473682E-7;3.7501018041451155E-6
-1.390144736842105E-7;3.953862412140375E-6
-1.3876578947368419E-7;4.110454751035271E-6
-1.3851710526315787E-7;4.219878820829802E-6
-1.3826842105263155E-7;4.282134621523969E-6
-1.3801973684210524E-7;4.309518041537097E-6
-1.3777105263157892E-7;4.327069369402009E-6
-1.375223684210526E-7;4.334788605118706E-6
-1.372736842105263E-7;4.332675748687186E-6
-1.3702499999999997E-7;4.345541111905459E-6
-1.3677631578947368E-7;4.399894938965764E-6
-1.3652763157894737E-7;4.495737229868103E-6
-1.3627894736842105E-7;4.6330679846124765E-6
-1.3603026315789473E-7;4.838432456358952E-6
-1.3578157894736842E-7;5.128961195431224E-6
-1.3553289473684207E-7;5.504654201829292E-6
-1.3528421052631576E-7;5.965511475553156E-6
-1.3503552631578944E-7;6.528947887671206E-6
-1.3478684210526312E-7;7.196574852844577E-6
-1.345381578947368E-7;7.968392371073274E-6
-1.342894736842105E-7;8.844400442357293E-6
-1.3404078947368417E-7;9.826642195816694E-6
-1.3379210526315789E-7;1.090188934338297E-5
-1.3354342105263157E-7;1.2070141885056124E-5
-1.3329473684210525E-7;1.3331399820836154E-5
-1.3304605263157894E-7;1.4672886588879195E-5
-1.3279736842105262E-7;1.607271236031404E-5
-1.325486842105263E-7;1.753087713514068E-5
-1.323E-7;1.904738091335912E-5
-1.3205131578947367E-7;2.060072051082982E-5
-1.3180263157894735E-7;2.2168079284961577E-5
-1.3155394736842104E-7;2.3749457235754385E-5
-1.3130526315789472E-7;2.5344854363208252E-5
-1.310565789473684E-7;2.693177532229259E-5
-1.308078947368421E-7;2.849121675175508E-5
-1.3055921052631577E-7;3.002317865159571E-5
-1.3031052631578946E-7;3.1527661021814486E-5
-1.3006184210526314E-7;3.298600019739191E-5
-1.2981315789473682E-7;3.438180191739391E-5
-1.295644736842105E-7;3.5715066181820454E-5
-1.293157894736842E-7;3.698579299067156E-5
-1.2906710526315787E-7;3.8178073404017754E-5
-1.2881842105263156E-7;3.927096535728658E-5
-1.2856973684210527E-7;4.026446885047803E-5
-1.2832105263157895E-7;4.115858388359211E-5
-1.2807236842105264E-7;4.193311207396834E-5
-1.278236842105263E-7;4.25522420463406E-5
-1.2757499999999998E-7;4.30159738007089E-5
-1.2732631578947366E-7;4.332430733707324E-5
-1.2707763157894734E-7;4.3442485005056565E-5
-1.2682894736842103E-7;4.331042371654672E-5
-1.2658026315789474E-7;4.2928123471543705E-5
-1.2633157894736842E-7;4.229558427004752E-5
-1.260828947368421E-7;4.1354062916726005E-5
-1.258342105263158E-7;4.0014035160071726E-5
-1.2558552631578947E-7;3.8275501000084675E-5
-1.2533684210526316E-7;3.613846043676485E-5
-1.2508815789473684E-7;3.3514935803275295E-5
-1.2483947368421052E-7;3.0285995827163303E-5
-1.245907894736842E-7;2.645164050842886E-5
-1.243421052631579E-7;2.2011869847071972E-5
-1.2409342105263157E-7;1.6849408856634293E-5
-1.2384473684210523E-7;1.0819499476604251E-5
-1.2359605263157891E-7;3.9221417069818454E-6
-1.233473684210526E-7;-3.842664452232926E-6
-1.2309868421052628E-7;-1.2617995252675302E-5
-1.2284999999999997E-7;-2.257044978005872E-5
-1.2260131578947368E-7;-3.3700028034383184E-5
-1.2235263157894736E-7;-4.60067300156487E-5
-1.2210394736842104E-7;-5.9655517717517474E-5
-1.2185526315789473E-7;-7.483307247077783E-5
-1.216065789473684E-7;-9.153939427542979E-5
-1.213578947368421E-7;-1.0977448313147333E-4
-1.2110921052631578E-7;-1.2972351773003234E-4
-1.2086052631578946E-7;-1.5159403818839845E-4
-1.2061184210526314E-7;-1.753860445065717E-4
-1.2036315789473683E-7;-2.0109953668455204E-4
-1.201144736842105E-7;-2.289408499450375E-4
-1.198657894736842E-7;-2.59138986988422E-4
-1.1961710526315788E-7;-2.916939478147055E-4
-1.1936842105263156E-7;-3.2660573242388813E-4
-1.1911973684210525E-7;-3.641027216623766E-4
-1.1887105263157893E-7;-4.0443091490963303E-4
-1.1862236842105261E-7;-4.475903121656574E-4
-1.183736842105263E-7;-4.935809134304497E-4
-1.1812499999999998E-7;-5.426491046161283E-4
-1.1787631578947366E-7;-5.950432361129576E-4
-1.1762763157894735E-7;-6.507633079209376E-4
-1.1737894736842103E-7;-7.098093200400683E-4
-1.1713026315789472E-7;-7.724315610261028E-4
-1.168815789473684E-7;-8.388527337245743E-4
-1.1663289473684208E-7;-9.090728381354832E-4
-1.1638421052631577E-7;-9.830918742588291E-4
-1.1613552631578946E-7;-0.001061136644844299
-1.1588684210526315E-7;-0.0011433628381092896
-1.1563815789473684E-7;-0.0012297704540538013
-1.1538947368421053E-7;-0.0013203594926778338
-1.1514078947368421E-7;-0.0014152925283705416
-1.1489210526315788E-7;-0.001514606254669947
-1.1464342105263156E-7;-0.0016183006715760504
-1.1439473684210524E-7;-0.0017263757790888516
-1.1414605263157893E-7;-0.001838878557890229
-1.1389736842105262E-7;-0.001955667763689114
-1.1364868421052631E-7;-0.0020767433964855074
-1.134E-7;-0.002202105456279408
-1.1315131578947368E-7;-0.0023316270108419664
-1.1290263157894736E-7;-0.0024649250464863
-1.1265394736842106E-7;-0.002601999563212408
-1.1240526315789474E-7;-0.002742850561020291
-1.1215657894736843E-7;-0.0028871140488648727
-1.1190789473684211E-7;-0.00303409523862784
-1.116592105263158E-7;-0.0031837941303091907
-1.1141052631578948E-7;-0.0033362107239089268
-1.1116184210526316E-7;-0.003490674764259209
-1.1091315789473685E-7;-0.0036460988088559327
-1.1066447368421053E-7;-0.003802482857699099
-1.1041578947368421E-7;-0.003959826910788707
-1.1016710526315791E-7;-0.0041170744915498955
-1.099184210526316E-7;-0.004272647573731774
-1.0966973684210526E-7;-0.00442654615733434
-1.0942105263157896E-7;-0.004578770242357594
-1.0917236842105264E-7;-0.004727780179642465
-1.0892368421052633E-7;-0.004871387985585648
-1.0867500000000001E-7;-0.005009593660187142
-1.084263157894737E-7;-0.005142397203446947
-1.0817763157894738E-7;-0.005267657305094379
-1.0792894736842106E-7;-0.005382435764852738
-1.0768026315789475E-7;-0.005486732582722023
-1.0743157894736843E-7;-0.005580547758702235
-1.071828947368421E-7;-0.005660998652813131
-1.069342105263158E-7;-0.005724242845146614
-1.0668552631578948E-7;-0.005770280335702687
-1.0643684210526315E-7;-0.005799111124481346
-1.0618815789473685E-7;-0.005806957333174474
-1.0593947368421053E-7;-0.00578891754717091
-1.056907894736842E-7;-0.005744991766470656
-1.054421052631579E-7;-0.005675179991073711
-1.0519342105263158E-7;-0.005574653777211342
-1.0494473684210527E-7;-0.005437313062479136
-1.0469605263157895E-7;-0.005263157846877091
-1.0444736842105263E-7;-0.005052188130405209
-1.0419868421052632E-7;-0.0047983839831262755
-1.0395E-7;-0.004494337191973429
-1.0370131578947368E-7;-0.004140047756946669
-1.0345263157894737E-7;-0.003735515678045998
-1.0320394736842105E-7;-0.0032734180541927477
-1.0295526315789474E-7;-0.002744970443486472
-1.0270657894736842E-7;-0.00215017284592717
-1.024578947368421E-7;-0.0014890252615148423
-1.0220921052631579E-7;-7.528310664019584E-4
-1.0196052631578947E-7;6.859004430896271E-5
-1.0171184210526315E-7;9.752380706179214E-4
-1.0146315789473684E-7;0.0019671130125249177
-1.0121447368421052E-7;0.003054308235879972
-1.009657894736842E-7;0.00424836598576129
-1.0071710526315789E-7;0.005549286262168872
-1.0046842105263157E-7;0.006957069065102718
-1.0021973684210526E-7;0.008483174791805898
-9.997105263157894E-8;0.010140412600616822
-9.972236842105262E-8;0.011928782491535492
-9.94736842105263E-8;0.013848284464561907
-9.922499999999999E-8;0.01591165618187495
-9.897631578947367E-8;0.01813280316155789
-9.872763157894736E-8;0.020511725403610737
-9.847894736842104E-8;0.02304842290803348
-9.823026315789472E-8;0.025756746640721216
-9.798157894736841E-8;0.02865142869765462
-9.773289473684209E-8;0.031732469078833696
-9.748421052631578E-8;0.03499986778425844
-9.723552631578946E-8;0.03846832748608077
-9.698684210526314E-8;0.04215300593507306
-9.673815789473683E-8;0.04605390313123531
-9.648947368421051E-8;0.050171019074567516
-9.62407894736842E-8;0.0545195171363084
-9.599210526315788E-8;0.05911441310990952
-9.574342105263156E-8;0.0639557069953709
-9.549473684210524E-8;0.0690433987926925
-9.524605263157893E-8;0.07439255655546705
-9.499736842105261E-8;0.08001728724933226
-9.47486842105263E-8;0.0859175908742881
-9.449999999999998E-8;0.09209346743033461
-9.425131578947366E-8;0.0985591357999818
-9.400263157894735E-8;0.10532680462973101
-9.375394736842103E-8;0.11239647391958227
-9.350526315789471E-8;0.11976814366953553
-9.32565789473684E-8;0.12745420812474928
-9.300789473684208E-8;0.1354637548295212
-9.275921052631576E-8;0.1437967837838513
-9.251052631578945E-8;0.1524532949877396
-9.226184210526313E-8;0.16144264982310963
-9.201315789473682E-8;0.1707693601619291
-9.17644736842105E-8;0.18043342600419796
-9.151578947368418E-8;0.19043484734991625
-9.126710526315787E-8;0.2007785127965557
-9.101842105263155E-8;0.21146268180546002
-9.076973684210523E-8;0.22248735437662925
-9.052105263157893E-8;0.2338525305100634
-9.027236842105261E-8;0.24555696367384267
-9.002368421052631E-8;0.2575907741922718
-8.977500000000001E-8;0.26995396206535077
-8.952631578947369E-8;0.28264652729307965
-8.927763157894738E-8;0.2956592153604102
-8.902894736842105E-8;0.3089719212687557
-8.878026315789472E-8;0.32258464501811634
-8.85315789473684E-8;0.33649738660849204
-8.828289473684208E-8;0.35069081044542527
-8.803421052631578E-8;0.3651323089742597
-8.778552631578948E-8;0.37982188219499535
-8.753684210526316E-8;0.39475953010763226
-8.728815789473684E-8;0.4099135707345703
-8.703947368421051E-8;0.42523643616269946
-8.679078947368419E-8;0.44072812639201975
-8.654210526315787E-8;0.45638864142253105
-8.629342105263155E-8;0.472171505264164
-8.604473684210525E-8;0.4880115715566347
-8.579605263157895E-8;0.5039088402999432
-8.554736842105263E-8;0.5198633114940895
-8.529868421052631E-8;0.5358111046063382
-8.504999999999998E-8;0.5516667550967533
-8.480131578947365E-8;0.5674302629653352
-8.455263157894734E-8;0.5831016282120836
-8.430394736842103E-8;0.5985968299005686
-8.405526315789472E-8;0.6138072869804596
-8.380657894736843E-8;0.6287329994517563
-8.355789473684211E-8;0.6433739673144587
-8.33092105263158E-8;0.657623229925912
-8.306052631578948E-8;0.6713463212120836
-8.281184210526316E-8;0.6845432411729737
-8.256315789473685E-8;0.697213989808582
-8.231447368421053E-8;0.7092258913760211
-8.206578947368421E-8;0.7204159650437483
-8.18171052631579E-8;0.7307842108117637
-8.156842105263158E-8;0.7403306286800672
-8.131973684210527E-8;0.7488941844652425
-8.107105263157895E-8;0.7562810120003062
-8.082236842105263E-8;0.7624911112852584
-8.057368421052632E-8;0.7675244823200992
-8.0325E-8;0.771189341091299
-8.007631578947368E-8;0.7732589461557542
-7.982763157894737E-8;0.7737332975134648
-7.957894736842105E-8;0.7726123951644307
-7.933026315789473E-8;0.7696716871571875
-7.908157894736842E-8;0.7646500621006648
-7.88328947368421E-8;0.7575475199948625
-7.858421052631579E-8;0.7483640608397807
-7.833552631578947E-8;0.7368408346364301
-7.808684210526315E-8;0.7226814653148149
-7.783815789473684E-8;0.7058859528749352
-7.758947368421052E-8;0.6864542973167909
-7.73407894736842E-8;0.664092413341527
-7.70921052631579E-8;0.6384684622633282
-7.68434210526316E-8;0.6095824440821944
-7.659473684210528E-8;0.5774343587981258
-7.634605263157896E-8;0.5416946384508329
-7.609736842105263E-8;0.5019965751333204
-7.58486842105263E-8;0.45834016884558837
-7.559999999999999E-8;0.41072541958763675
-7.535131578947367E-8;0.3587878139494001
-7.510263157894737E-8;0.3021272571655135
-7.485394736842107E-8;0.24074374923597663
-7.460526315789475E-8;0.1746372901607896
-7.435657894736843E-8;0.10340984068356612
-7.41078947368421E-8;0.0266303929470719
-7.385921052631577E-8;-0.05570105304869302
-7.361052631578946E-8;-0.14358449730372866
-7.336184210526314E-8;-0.23744910011404818
-7.311315789473684E-8;-0.33775321435900507
-7.286447368421054E-8;-0.4444968400385993
-7.261578947368422E-8;-0.5576799771528308
-7.23671052631579E-8;-0.6777594133730855
-7.211842105263157E-8;-0.8052160912455696
-7.186973684210524E-8;-0.9400500107702829
-7.162105263157893E-8;-1.0822611719472257
-7.137236842105262E-8;-1.2323293130419153
-7.112368421052632E-8;-1.390751954616107
-7.0875E-8;-1.557529096669801
-7.06263157894737E-8;-1.7326607392029971
-7.037763157894738E-8;-1.9166436403265112
-7.012894736842106E-8;-2.1099845994393513
-6.988026315789473E-8;-2.312683616541517
-6.963157894736841E-8;-2.5247406916330086
-6.938289473684209E-8;-2.7466623844039884
-6.913421052631578E-8;-2.9789562025136544
-6.888552631578946E-8;-3.221622145962008
-6.863684210526314E-8;-3.4746602147490475
-6.838815789473683E-8;-3.73857827788139
-6.813947368421051E-8;-4.013874775570072
-6.78907894736842E-8;-4.300549707815092
-6.764210526315788E-8;-4.598603074616452
-6.739342105263156E-8;-4.9085343516473365
-6.714473684210525E-8;-5.230822043034838
-6.689605263157893E-8;-5.565466148778954
-6.664736842105261E-8;-5.912466668879685
-6.63986842105263E-8;-6.272303882345608
-6.614999999999998E-8;-6.6454245448176685
-6.590131578947366E-8;-7.031828656295867
-6.565263157894735E-8;-7.431516216780205
-6.540394736842103E-8;-7.844936551549133
-6.515526315789471E-8;-8.272492087671312
-6.49065789473684E-8;-8.714182825146743
-6.465789473684208E-8;-9.170008763975423
-6.440921052631578E-8;-9.640375739067805
-6.416052631578946E-8;-10.125628696836122
-6.391184210526316E-8;-10.625767637280369
-6.366315789473686E-8;-11.140792560400552
-6.341447368421054E-8;-11.671052688501547
-6.316578947368422E-8;-12.216821976314337
-6.291710526315791E-8;-12.778100423838922
-6.266842105263159E-8;-13.3548880310753
-6.241973684210527E-8;-13.947463911306926
-6.217105263157896E-8;-14.556017390963152
-6.192236842105264E-8;-15.18054847004398
-6.167368421052633E-8;-15.821057148549412
-6.142500000000001E-8;-16.477738791842036
-6.117631578947369E-8;-17.150684595280115
-6.092763157894738E-8;-17.83989455886365
-6.067894736842106E-8;-18.545368682592642
-6.043026315789474E-8;-19.267205060303105
-6.018157894736843E-8;-20.005383677937953
-5.993289473684211E-8;-20.759904535497178
-5.96842105263158E-8;-21.530767632980787
-5.9435526315789465E-8;-22.31796067338581
-5.918684210526314E-8;-23.121340101509148
-5.893815789473681E-8;-23.94090591735081
-5.868947368421049E-8;-24.77665812091079
-5.844078947368417E-8;-25.628461630253323
-5.8192105263157857E-8;-26.496038111298674
-5.794342105263154E-8;-27.37938756404684
-5.7694736842105224E-8;-28.27850998849782
-5.7446052631578914E-8;-29.193136195591123
-5.719736842105261E-8;-30.122843287771516
-5.69486842105263E-8;-31.067631265039
-5.67E-8;-32.02750012739358
-5.645131578947368E-8;-33.00203668756836
-5.6202631578947365E-8;-33.99066550565034
-5.595394736842105E-8;-34.99338658163951
-5.570526315789473E-8;-36.01019991553587
-5.5456578947368416E-8;-37.04054021545178
-5.52078947368421E-8;-38.08367365262202
-5.4959210526315784E-8;-39.13960022704658
-5.471052631578947E-8;-40.20831993872547
-5.446184210526315E-8;-41.289109397914146
-5.4213157894736835E-8;-42.38107295722602
-5.396447368421052E-8;-43.48421061666106
-5.37157894736842E-8;-44.5985223762193
-5.3467105263157885E-8;-45.723123155144165
-5.321842105263157E-8;-46.856954705901856
-5.296973684210525E-8;-48.0000170284924
-5.2721052631578936E-8;-49.152310122915786
-5.247236842105262E-8;-50.312786258897404
-5.2223684210526304E-8;-51.480226630576055
-5.197499999999999E-8;-52.65463123795175
-5.172631578947367E-8;-53.83600008102447
-5.1477631578947355E-8;-55.02312463454394
-5.122894736842104E-8;-56.21463052021761
-5.098026315789472E-8;-57.410517738045485
-5.0731578947368405E-8;-58.61078628802755
-5.048289473684209E-8;-59.81407164163207
-5.023421052631578E-8;-61.01885184924257
-4.998552631578946E-8;-62.22512691085906
-4.973684210526315E-8;-63.43289682648153
-4.948815789473684E-8;-64.6406488676486
-4.9239473684210534E-8;-65.84672455528552
-4.899078947368423E-8;-67.05112388939233
-4.8742105263157914E-8;-68.25384686996902
-4.84934210526316E-8;-69.4532434125891
-4.824473684210527E-8;-70.64753257173498
-4.799605263157894E-8;-71.83671434740663
-4.774736842105262E-8;-73.02078873960404
-4.7498684210526306E-8;-74.19798217645314
-4.725E-8;-75.36640826108767
-4.70013157894737E-8;-76.52606699350767
-4.6752631578947383E-8;-77.67695837371309
-4.650394736842107E-8;-78.81720217017667
-4.625526315789474E-8;-79.94482637519889
-4.600657894736841E-8;-81.05983098877974
-4.575789473684209E-8;-82.16221601091924
-4.5509210526315775E-8;-83.25001421494115
-4.5260526315789465E-8;-84.3211904547132
-4.5011842105263156E-8;-85.37574473023545
-4.476315789473684E-8;-86.41367704150787
-4.451447368421052E-8;-87.43295547870675
-4.42657894736842E-8;-88.43150659425527
-4.401710526315788E-8;-89.40933038815342
-4.376842105263156E-8;-90.3664268604012
-4.3519736842105244E-8;-91.30072411458998
-4.3271052631578934E-8;-92.21013726097124
-4.3022368421052625E-8;-93.09466629954498
-4.277368421052631E-8;-93.9543112303112
-4.252499999999999E-8;-94.78698691321699
-4.2276315789473676E-8;-95.59062548686202
-4.202763157894736E-8;-96.36522695124634
-4.177894736842104E-8;-97.11079130636989
-4.1530263157894727E-8;-97.82524855038665
-4.128157894736841E-8;-98.50657746584861
-4.1032894736842094E-8;-99.15477805275574
-4.078421052631578E-8;-99.76985031110809
-4.053552631578946E-8;-100.34976893463221
-4.0286842105263145E-8;-100.89258960800899
-4.003815789473683E-8;-101.3983123312385
-3.978947368421051E-8;-101.8669371043207
-3.9540789473684196E-8;-102.29651354873673
-3.929210526315788E-8;-102.68520463351773
-3.904342105263156E-8;-103.03301035866363
-3.8794736842105247E-8;-103.33993072417451
-3.854605263157893E-8;-103.60412066858856
-3.8297368421052614E-8;-103.82388043505583
-3.80486842105263E-8;-103.99921002357631
-3.779999999999998E-8;-104.13010943415001
-3.7551315789473665E-8;-104.21486895229624
-3.7302631578947355E-8;-104.25195519088183
-3.7053947368421045E-8;-104.24136814990676
-3.680526315789473E-8;-104.18310782937104
-3.655657894736842E-8;-104.07562902997155
-3.630789473684211E-8;-103.91759245519836
-3.60592105263158E-8;-103.70899810505149
-3.581052631578949E-8;-103.44984597953092
-3.556184210526317E-8;-103.13878321938482
-3.5313157894736844E-8;-102.77469050669714
-3.506447368421052E-8;-102.35756784146791
-3.48157894736842E-8;-101.8874152236971
-3.456710526315789E-8;-101.36309815612846
-3.431842105263158E-8;-100.78374091705788
-3.406973684210527E-8;-100.14934350648537
-3.382105263157896E-8;-99.45990592441093
-3.3572368421052636E-8;-98.71453581555625
-3.332368421052631E-8;-97.91262198484803
-3.307499999999999E-8;-97.05416443228629
-3.282631578947367E-8;-96.13916315787102
-3.257763157894736E-8;-95.1669890675341
-3.232894736842105E-8;-94.1373133436729
-3.208026315789474E-8;-93.05013598628742
-3.183157894736843E-8;-91.90545699537763
-3.1582894736842105E-8;-90.70292860175063
-3.133421052631578E-8;-89.44251877827071
-3.108552631578946E-8;-88.1242275249379
-3.0836842105263136E-8;-86.74805484175216
-3.058815789473683E-8;-85.31394893119534
-3.0339473684210523E-8;-83.82218522204532
-3.0090789473684214E-8;-82.2727637143021
-2.984210526315791E-8;-80.66568440796571
-2.9593421052631594E-8;-79.00120239364367
-2.9344736842105278E-8;-77.27990722924876
-2.909605263157896E-8;-75.50179891478102
-2.8847368421052645E-8;-73.66687745024042
-2.859868421052633E-8;-71.7757117513567
-2.8350000000000012E-8;-69.82920802072684
-2.8101315789473696E-8;-67.82736625835082
-2.785263157894738E-8;-65.77018646422867
-2.7603947368421067E-8;-63.65855416642157
-2.7355263157894753E-8;-61.49369049217026
-2.710657894736844E-8;-59.27559544147475
-2.6857894736842127E-8;-57.00426901433505
-2.6609210526315808E-8;-54.68091190558621
-2.6360526315789488E-8;-52.30705422107052
-2.611184210526317E-8;-49.882695960787984
-2.586315789473685E-8;-47.407837124738606
-2.5614473684210536E-8;-44.88398790084548
-2.5365789473684223E-8;-42.312977290363065
-2.511710526315791E-8;-39.694805293291374
-2.4868421052631596E-8;-37.02947190963041
-2.461973684210527E-8;-34.31878700291729
-2.4371052631578944E-8;-31.564864403892436
-2.4122368421052618E-8;-28.767704112555844
-2.387368421052629E-8;-25.92730612890752
-2.3624999999999985E-8;-23.04576618130822
-2.337631578947368E-8;-20.125465085989095
-2.3127631578947372E-8;-17.166402842950152
-2.2878947368421066E-8;-14.168579452191382
-2.2630263157894743E-8;-11.134358904106639
-2.238157894736842E-8;-8.0663676209678
-2.2132894736842097E-8;-4.964605602774867
-2.1884210526315774E-8;-1.8290728495278392
-2.1635526315789464E-8;1.337619541373326
-2.1386842105263154E-8;4.53262418264716
-2.1138157894736844E-8;7.755941074293663
-2.0889473684210535E-8;11.007570216312834
-2.0640789473684212E-8;14.284677840311767
-2.039210526315789E-8;17.584223191914596
-2.0143421052631566E-8;20.906206271121317
-1.9894736842105243E-8;24.250627077931927
-1.9646052631578933E-8;27.614456587613724
-1.9397368421052623E-8;30.99449089421454
-1.9148684210526314E-8;34.3907299977344
-1.8900000000000004E-8;37.80317389817328
-1.865131578947368E-8;41.22862837082539
-1.8402631578947358E-8;44.663758813013764
-1.8153947368421035E-8;48.10856522473838
-1.7905263157894712E-8;51.563047605999245
-1.7656578947368402E-8;55.023878854093994
-1.7407894736842092E-8;58.487627945850804
-1.7159210526315783E-8;61.95429488126966
-1.6910526315789473E-8;65.4238796603506
-1.666184210526316E-8;68.8929564739517